/*--------------------------------*- C++ -*----------------------------------*\
| =========                 |                                                 |
| \\      /  F ield         | OpenFOAM: The Open Source CFD Toolbox           |
|  \\    /   O peration     | Version:  5.x                                   |
|   \\  /    A nd           | Web:      www.OpenFOAM.org                      |
|    \\/     M anipulation  |                                                 |
\*---------------------------------------------------------------------------*/
FoamFile
{
    version     2.0;
    format      ascii;
    class       volScalarField;
    location    "0";
    object      lambda;
}
// * * * * * * * * * * * * * * * * * * * * * * * * * * * * * * * * * * * * * //

dimensions      [-1 1 3 2 0 0 0];

internalField   nonuniform List<scalar> 
400
(
-2.12902e-06
4.47482e-08
9.07981e-06
2.12819e-05
3.56706e-05
5.21261e-05
7.01205e-05
8.85948e-05
0.000106484
0.000122649
0.000136092
0.000145877
0.000151171
0.000151178
0.000145208
0.000132868
0.000114311
9.02207e-05
6.05492e-05
2.24928e-05
4.47482e-08
-5.07128e-06
-3.22003e-06
-1.751e-06
-2.67339e-06
-4.14291e-06
-5.20969e-06
-5.91e-06
-6.54068e-06
-7.14335e-06
-7.6461e-06
-7.88188e-06
-7.81219e-06
-7.47258e-06
-7.19587e-06
-7.03231e-06
-6.02377e-06
-2.46445e-06
1.60398e-06
-1.2077e-06
9.07981e-06
-3.22003e-06
-3.39541e-06
-2.29628e-06
-5.48325e-06
-1.02166e-05
-1.46334e-05
-1.85314e-05
-2.22111e-05
-2.56491e-05
-2.86527e-05
-3.07234e-05
-3.18226e-05
-3.18908e-05
-3.12762e-05
-2.9963e-05
-2.62799e-05
-1.74797e-05
-9.48376e-06
-1.33559e-05
2.12819e-05
-1.751e-06
-2.29628e-06
3.71183e-06
4.41692e-06
3.0224e-06
2.43614e-06
2.58625e-06
2.88524e-06
3.04794e-06
3.00562e-06
2.98352e-06
3.02104e-06
2.70277e-06
1.44094e-06
-6.1815e-07
-6.97327e-07
4.53509e-06
3.163e-06
-2.08051e-05
3.56706e-05
-2.67339e-06
-5.48325e-06
4.41692e-06
6.86504e-06
6.04333e-06
6.29545e-06
7.28205e-06
8.63141e-06
9.75776e-06
1.05021e-05
1.1114e-05
1.15099e-05
1.11906e-05
9.20748e-06
6.12108e-06
6.07434e-06
1.31824e-05
7.36609e-06
-3.40883e-05
5.21261e-05
-4.14291e-06
-1.02166e-05
3.0224e-06
6.04333e-06
3.90423e-06
2.52366e-06
2.5379e-06
3.04739e-06
3.43189e-06
3.55675e-06
3.68809e-06
3.93767e-06
3.60347e-06
1.18537e-06
-1.84465e-06
5.91254e-07
1.28185e-05
5.69925e-06
-5.158e-05
7.01205e-05
-5.20969e-06
-1.46334e-05
2.43614e-06
6.29545e-06
2.52366e-06
-5.97728e-07
-1.76514e-06
-2.16321e-06
-2.71008e-06
-3.09711e-06
-3.68161e-06
-3.59346e-06
-4.53471e-06
-6.93368e-06
-9.96818e-06
-5.54323e-06
1.24251e-05
3.80483e-06
-7.05751e-05
8.85948e-05
-5.91e-06
-1.85314e-05
2.58625e-06
7.28205e-06
2.5379e-06
-1.76514e-06
-3.84469e-06
-4.83571e-06
-5.80166e-06
-6.51681e-06
-6.94484e-06
-7.51288e-06
-8.74475e-06
-1.19757e-05
-1.48787e-05
-8.73294e-06
1.37712e-05
3.09876e-06
-8.95797e-05
0.000106484
-6.54068e-06
-2.22111e-05
2.88524e-06
8.63141e-06
3.04739e-06
-2.16321e-06
-4.83571e-06
-6.28432e-06
-7.24875e-06
-8.14906e-06
-8.66359e-06
-9.56302e-06
-1.16829e-05
-1.51723e-05
-1.81285e-05
-1.03506e-05
1.65381e-05
2.97906e-06
-0.000107683
0.000122649
-7.14335e-06
-2.56491e-05
3.04794e-06
9.75776e-06
3.43189e-06
-2.71008e-06
-5.80166e-06
-7.24875e-06
-8.34646e-06
-9.09144e-06
-9.52915e-06
-1.18646e-05
-1.44797e-05
-1.82632e-05
-2.06073e-05
-1.17567e-05
1.91459e-05
2.91349e-06
-0.000124059
0.000136092
-7.6461e-06
-2.86527e-05
3.00562e-06
1.05021e-05
3.55675e-06
-3.09711e-06
-6.51681e-06
-8.14906e-06
-9.09144e-06
-8.23131e-06
-8.74956e-06
-1.13372e-05
-1.5827e-05
-2.03158e-05
-2.28217e-05
-1.23428e-05
2.11042e-05
3.06222e-06
-0.000137686
0.000145877
-7.88188e-06
-3.07234e-05
2.98352e-06
1.1114e-05
3.68809e-06
-3.68161e-06
-6.94484e-06
-8.66359e-06
-9.52915e-06
-8.74956e-06
-1.07116e-05
-1.21007e-05
-1.62989e-05
-2.24965e-05
-2.43467e-05
-1.31309e-05
2.25176e-05
2.88394e-06
-0.000147579
0.000151171
-7.81219e-06
-3.18226e-05
3.02104e-06
1.15099e-05
3.93767e-06
-3.59346e-06
-7.51288e-06
-9.56302e-06
-1.18646e-05
-1.13372e-05
-1.21007e-05
-1.36979e-05
-1.74746e-05
-2.40285e-05
-2.63975e-05
-1.37379e-05
2.24237e-05
2.63226e-06
-0.000152945
0.000151178
-7.47258e-06
-3.18908e-05
2.70277e-06
1.11906e-05
3.60347e-06
-4.53471e-06
-8.74475e-06
-1.16829e-05
-1.44797e-05
-1.5827e-05
-1.62989e-05
-1.74746e-05
-2.02001e-05
-2.69487e-05
-2.99601e-05
-1.54232e-05
2.24773e-05
1.68087e-06
-0.000153111
0.000145208
-7.19587e-06
-3.12762e-05
1.44094e-06
9.20748e-06
1.18537e-06
-6.93368e-06
-1.19757e-05
-1.51723e-05
-1.82632e-05
-2.03158e-05
-2.24965e-05
-2.40285e-05
-2.69487e-05
-3.17718e-05
-3.36941e-05
-1.86928e-05
1.92141e-05
-7.55255e-07
-0.000147909
0.000132868
-7.03231e-06
-2.9963e-05
-6.1815e-07
6.12108e-06
-1.84465e-06
-9.96818e-06
-1.48787e-05
-1.81285e-05
-2.06073e-05
-2.28217e-05
-2.43467e-05
-2.63975e-05
-2.99601e-05
-3.36941e-05
-3.45112e-05
-2.17732e-05
1.38298e-05
-3.43009e-06
-0.000136419
0.000114311
-6.02377e-06
-2.62799e-05
-6.97327e-07
6.07434e-06
5.91254e-07
-5.54323e-06
-8.73294e-06
-1.03506e-05
-1.17567e-05
-1.23428e-05
-1.31309e-05
-1.37379e-05
-1.54232e-05
-1.86928e-05
-2.17732e-05
-1.21426e-05
1.64901e-05
-3.14351e-07
-0.000116428
9.02207e-05
-2.46445e-06
-1.74797e-05
4.53509e-06
1.31824e-05
1.28185e-05
1.24251e-05
1.37712e-05
1.65381e-05
1.91459e-05
2.11042e-05
2.25176e-05
2.24237e-05
2.24773e-05
1.92141e-05
1.38298e-05
1.64901e-05
3.2603e-05
1.15753e-05
-8.71766e-05
6.05492e-05
1.60398e-06
-9.48376e-06
3.163e-06
7.36609e-06
5.69925e-06
3.80483e-06
3.09876e-06
2.97906e-06
2.91349e-06
3.06222e-06
2.88394e-06
2.63226e-06
1.68087e-06
-7.55255e-07
-3.43009e-06
-3.14351e-07
1.15753e-05
-3.56224e-07
-6.01193e-05
2.24928e-05
-1.2077e-06
-1.33559e-05
-2.08051e-05
-3.40883e-05
-5.158e-05
-7.05751e-05
-8.95797e-05
-0.000107683
-0.000124059
-0.000137686
-0.000147579
-0.000152945
-0.000153111
-0.000147909
-0.000136419
-0.000116428
-8.71766e-05
-6.01193e-05
-4.3103e-05
)
;

boundaryField
{
    leftWall
    {
        type            fixedValue;
        value           uniform 0;
    }
    rightWall
    {
        type            fixedValue;
        value           uniform 0;
    }
    topWall
    {
        type            fixedValue;
        value           uniform 0;
    }
    bottomWall
    {
        type            fixedValue;
        value           uniform 0;
    }
    backAndFront
    {
        type            empty;
    }
}


// ************************************************************************* //
